
#(C) 2016 by FIZ Karlsruhe - Leibniz Institute for Information Infrastructure.  All rights reserved.
data_39566-ICSD
_database_code_ICSD 39566
_audit_creation_date 1993-08-22
_audit_update_record 2010-02-01
_chemical_name_systematic 'Aluminium chloride'
_chemical_formula_structural 'Al Cl3'
_chemical_formula_sum 'Al1 Cl3'
_chemical_name_structure_type RhBr3
_exptl_crystal_density_diffrn 2.51
_publ_section_title

;
Crystal structure of titanium(II) chloroaluminates Ti (Al Cl4)2 and refinement
of Al Cl3 crystal structure.
;
loop_
_citation_id
_citation_journal_full
_citation_year
_citation_journal_volume
_citation_page_first
_citation_page_last
_citation_journal_id_ASTM
primary 'Zhurnal Neorganicheskoi Khimii' 1992 37 266 272 ZNOKAQ
loop_
_publ_author_name
'Troyanov, S.I.'
_cell_length_a 5.914(2)
_cell_length_b 10.234(3)
_cell_length_c 6.148(2)
_cell_angle_alpha 90.
_cell_angle_beta 108.25(2)
_cell_angle_gamma 90.
_cell_volume 353.38
_cell_formula_units_Z 4
_symmetry_space_group_name_H-M 'C 1 2/m 1'
_symmetry_Int_Tables_number 12
_refine_ls_R_factor_all 0.042
loop_
_symmetry_equiv_pos_site_id
_symmetry_equiv_pos_as_xyz
1 '-x, y, -z'
2 '-x, -y, -z'
3 'x, -y, z'
4 'x, y, z'
5 '-x+1/2, y+1/2, -z'
6 '-x+1/2, -y+1/2, -z'
7 'x+1/2, -y+1/2, z'
8 'x+1/2, y+1/2, z'
loop_
_atom_type_symbol
_atom_type_oxidation_number
Al3+ 3
Cl1- -1
loop_
_atom_site_label
_atom_site_type_symbol
_atom_site_symmetry_multiplicity
_atom_site_Wyckoff_symbol
_atom_site_fract_x
_atom_site_fract_y
_atom_site_fract_z
_atom_site_B_iso_or_equiv
_atom_site_occupancy
_atom_site_attached_hydrogens
Al1 Al3+ 4 g 0 0.1662(2) 0 0.96(2) 1. 0
Cl1 Cl1- 4 i 0.2147(2) 0 0.2263 1.10(2) 1. 0
Cl2 Cl1- 8 j 0.2482(1) 0.17869(8) -.2248(1) 1.09(1) 1. 0
#End of TTdata_39566-ICSD