
#(C) 2016 by FIZ Karlsruhe - Leibniz Institute for Information Infrastructure.  All rights reserved.
data_202668-ICSD
_database_code_ICSD 202668
_audit_creation_date 1989-06-19
_audit_update_record 2016-02-01
_chemical_name_systematic 'Beryllium fluoride - beta'
_chemical_formula_structural 'Be F2'
_chemical_formula_sum 'Be1 F2'
_chemical_name_structure_type Quartz,high
_exptl_crystal_density_diffrn 2.23
_cell_measurement_temperature 246.
_publ_section_title

;
The preparation and structure of the alpha- and beta-quartz polymorphs of
beryllium fluoride
;
loop_
_citation_id
_citation_journal_full
_citation_year
_citation_journal_volume
_citation_page_first
_citation_page_last
_citation_journal_id_ASTM
primary 'Journal of Solid State Chemistry' 1988 73 298 304 JSSCBI
loop_
_publ_author_name
'Wright, A.F.'
'Fitch, A.N.'
'Wright, A.C.'
_cell_length_a 4.8060(1)
_cell_length_b 4.8060(1)
_cell_length_c 5.2404(1)
_cell_angle_alpha 90.
_cell_angle_beta 90.
_cell_angle_gamma 120.
_cell_volume 104.82
_cell_formula_units_Z 3
_symmetry_space_group_name_H-M 'P 62 2 2'
_symmetry_Int_Tables_number 180
_refine_ls_R_factor_all 0.054
loop_
_symmetry_equiv_pos_site_id
_symmetry_equiv_pos_as_xyz
1 'x, x-y, -z+1/3'
2 '-x+y, y, -z'
3 '-y, -x, -z+2/3'
4 '-x, -x+y, -z+1/3'
5 'x-y, -y, -z'
6 'y, x, -z+2/3'
7 'x-y, x, z+1/3'
8 'y, -x+y, z+2/3'
9 '-x, -y, z'
10 '-x+y, -x, z+1/3'
11 '-y, x-y, z+2/3'
12 'x, y, z'
loop_
_atom_type_symbol
_atom_type_oxidation_number
Be2+ 2
F1- -1
loop_
_atom_site_label
_atom_site_type_symbol
_atom_site_symmetry_multiplicity
_atom_site_Wyckoff_symbol
_atom_site_fract_x
_atom_site_fract_y
_atom_site_fract_z
_atom_site_B_iso_or_equiv
_atom_site_occupancy
_atom_site_attached_hydrogens
Be1 Be2+ 6 g 0.4806(9) 0 0 1.90(2) 0.5 0
F1 F1- 12 k 0.4204(4) 0.2497(9) 0.1477(3) . 0.5 0
loop_
_atom_site_aniso_label
_atom_site_aniso_type_symbol
_atom_site_aniso_U_11
_atom_site_aniso_U_22
_atom_site_aniso_U_33
_atom_site_aniso_U_12
_atom_site_aniso_U_13
_atom_site_aniso_U_23
F1 F1- 0.027(3) 0.071(1) 0.041(3) 0.029(1) 0.015(3) -0.004(2)
#End of TTdata_202668-ICSD