
#(C) 2016 by FIZ Karlsruhe - Leibniz Institute for Information Infrastructure.  All rights reserved.
data_25704-ICSD
_database_code_ICSD 25704
_audit_creation_date 1980-01-01
_audit_update_record 2007-04-01
_chemical_name_systematic 'Beryllium silicon nitride'
_chemical_formula_structural 'Be Si N2'
_chemical_formula_sum 'Be1 N2 Si1'
_chemical_name_structure_type NaFeO2(beta)
_exptl_crystal_density_diffrn 3.24
_publ_section_title 'Die Kristallstruktur von Be Si N2'
loop_
_citation_id
_citation_journal_full
_citation_year
_citation_journal_volume
_citation_page_first
_citation_page_last
_citation_journal_id_ASTM
primary 'Zeitschrift fuer Anorganische und Allgemeine Chemie (1950) (DE)' 1967
353 225 235 ZAACAB
loop_
_publ_author_name
'Eckerlin, P.'
_cell_length_a 4.977(5)
_cell_length_b 5.747(6)
_cell_length_c 4.674(3)
_cell_angle_alpha 90.
_cell_angle_beta 90.
_cell_angle_gamma 90.
_cell_volume 133.69
_cell_formula_units_Z 4
_symmetry_space_group_name_H-M 'P n a 21'
_symmetry_Int_Tables_number 33
_refine_ls_R_factor_all 0.11
loop_
_symmetry_equiv_pos_site_id
_symmetry_equiv_pos_as_xyz
1 'x+1/2, -y+1/2, z'
2 '-x+1/2, y+1/2, z+1/2'
3 '-x, -y, z+1/2'
4 'x, y, z'
loop_
_atom_type_symbol
_atom_type_oxidation_number
Be2+ 2
Si4+ 4
N3- -3
loop_
_atom_site_label
_atom_site_type_symbol
_atom_site_symmetry_multiplicity
_atom_site_Wyckoff_symbol
_atom_site_fract_x
_atom_site_fract_y
_atom_site_fract_z
_atom_site_B_iso_or_equiv
_atom_site_occupancy
_atom_site_attached_hydrogens
Be1 Be2+ 4 a 0.083 0.625 0 0.551 1. 0
Si1 Si4+ 4 a 0.083 0.125 0 0.551 1. 0
N1 N3- 4 a 0.083 0.125 0.376(4) 0.551 1. 0
N2 N3- 4 a 0.083 0.625 0.376(4) 0.551 1. 0
#End of TTdata_25704-ICSD