
#(C) 2016 by FIZ Karlsruhe - Leibniz Institute for Information Infrastructure.  All rights reserved.
data_245943-ICSD
_database_code_ICSD 245943
_audit_creation_date 2009-02-01
_chemical_name_systematic 'Zinc stannate(IV)'
_chemical_formula_structural 'Zn (Sn O3)'
_chemical_formula_sum 'O3 Sn1 Zn1'
_chemical_name_structure_type LiNbO3
_exptl_crystal_density_diffrn 6.89
_publ_section_title 'A polar oxide Zn Sn O3 with a LiNbO3-type structure'
loop_
_citation_id
_citation_journal_full
_citation_year
_citation_journal_volume
_citation_page_first
_citation_page_last
_citation_journal_id_ASTM
primary 'Journal of the American Chemical Society' 2008 130 6704 6705 JACSAT
loop_
_publ_author_name
'Inaguma, Y.'
'Yoshida, M.'
'Katsumata, T.'
_cell_length_a 5.2622(1)
_cell_length_b 5.2622(1)
_cell_length_c 14.0026(2)
_cell_angle_alpha 90.
_cell_angle_beta 90.
_cell_angle_gamma 120.
_cell_volume 335.79
_cell_formula_units_Z 6
_symmetry_space_group_name_H-M 'R 3 c H'
_symmetry_Int_Tables_number 161
_refine_ls_R_factor_all 0.0284
loop_
_symmetry_equiv_pos_site_id
_symmetry_equiv_pos_as_xyz
1 '-x+y, y, z+1/2'
2 'x, x-y, z+1/2'
3 '-y, -x, z+1/2'
4 '-x+y, -x, z'
5 '-y, x-y, z'
6 'x, y, z'
7 '-x+y+2/3, y+1/3, z+5/6'
8 'x+2/3, x-y+1/3, z+5/6'
9 '-y+2/3, -x+1/3, z+5/6'
10 '-x+y+2/3, -x+1/3, z+1/3'
11 '-y+2/3, x-y+1/3, z+1/3'
12 'x+2/3, y+1/3, z+1/3'
13 '-x+y+1/3, y+2/3, z+1/6'
14 'x+1/3, x-y+2/3, z+1/6'
15 '-y+1/3, -x+2/3, z+1/6'
16 '-x+y+1/3, -x+2/3, z+2/3'
17 '-y+1/3, x-y+2/3, z+2/3'
18 'x+1/3, y+2/3, z+2/3'
loop_
_atom_type_symbol
_atom_type_oxidation_number
Zn2+ 2
Sn4+ 4
O2- -2
loop_
_atom_site_label
_atom_site_type_symbol
_atom_site_symmetry_multiplicity
_atom_site_Wyckoff_symbol
_atom_site_fract_x
_atom_site_fract_y
_atom_site_fract_z
_atom_site_B_iso_or_equiv
_atom_site_occupancy
_atom_site_attached_hydrogens
Zn1 Zn2+ 6 a 0 0 0.2859(1) 1.29(4) 1. 0
Sn1 Sn4+ 6 a 0 0 0 0.52(2) 1. 0
O1 O2- 18 b 0.0405(8) 0.350(1) 0.0709(6) 0.43(8) 1. 0
#End of TTdata_245943-ICSD