
#(C) 2016 by FIZ Karlsruhe - Leibniz Institute for Information Infrastructure.  All rights reserved.
data_22179-ICSD
_database_code_ICSD 22179
_audit_creation_date 1980-01-01
_audit_update_record 2006-04-01
_chemical_name_systematic 'Zinc tin(IV) phosphide'
_chemical_formula_structural 'Zn Sn P2'
_chemical_formula_sum 'P2 Sn1 Zn1'
_chemical_name_structure_type Chalcopyrite-CuFeS2
_exptl_crystal_density_diffrn 4.53
_publ_section_title
'Specific defects of the structure of compounds A(II) B(IV) C(V)2'
loop_
_citation_id
_citation_journal_full
_citation_year
_citation_journal_volume
_citation_page_first
_citation_page_last
_citation_journal_id_ASTM
primary 'Fizika Tverdogo Tela (Leningrad) (= Solid State Physics)' 1973 15 1430
1435 FTVTAC
loop_
_publ_author_name
'Vaipolin, A.A.'
_cell_length_a 5.651
_cell_length_b 5.651
_cell_length_c 11.302
_cell_angle_alpha 90.
_cell_angle_beta 90.
_cell_angle_gamma 90.
_cell_volume 360.92
_cell_formula_units_Z 4
_symmetry_space_group_name_H-M 'I -4 2 d'
_symmetry_Int_Tables_number 122
loop_
_symmetry_equiv_pos_site_id
_symmetry_equiv_pos_as_xyz
1 '-y, -x+1/2, z+1/4'
2 'y, -x, -z'
3 'y, x+1/2, z+1/4'
4 '-y, x, -z'
5 'x, -y+1/2, -z+1/4'
6 '-x, -y, z'
7 '-x, y+1/2, -z+1/4'
8 'x, y, z'
9 '-y+1/2, -x, z+3/4'
10 'y+1/2, -x+1/2, -z+1/2'
11 'y+1/2, x, z+3/4'
12 '-y+1/2, x+1/2, -z+1/2'
13 'x+1/2, -y, -z+3/4'
14 '-x+1/2, -y+1/2, z+1/2'
15 '-x+1/2, y, -z+3/4'
16 'x+1/2, y+1/2, z+1/2'
loop_
_atom_type_symbol
_atom_type_oxidation_number
Zn2+ 2
Sn4+ 4
P3- -3
loop_
_atom_site_label
_atom_site_type_symbol
_atom_site_symmetry_multiplicity
_atom_site_Wyckoff_symbol
_atom_site_fract_x
_atom_site_fract_y
_atom_site_fract_z
_atom_site_B_iso_or_equiv
_atom_site_occupancy
_atom_site_attached_hydrogens
Zn1 Zn2+ 4 a 0 0 0 0.51 1. 0
Sn1 Sn4+ 4 b 0 0 0.5 0.51 1. 0
P1 P3- 8 d 0.239(1) 0.25 0.125 0.51 1. 0
#End of TTdata_22179-ICSD