
#(C) 2016 by FIZ Karlsruhe - Leibniz Institute for Information Infrastructure.  All rights reserved.
data_15575-ICSD
_database_code_ICSD 15575
_audit_creation_date 1980-01-01
_audit_update_record 1985-04-24
_chemical_name_systematic 'Zirconium germanide(-II) telluride'
_chemical_formula_structural 'Zr Ge Te'
_chemical_formula_sum 'Ge1 Te1 Zr1'
_chemical_name_structure_type ZrSSi/UP2
_exptl_crystal_density_diffrn 7.53
_publ_section_title

;
Zirconium silicide and germanide chalcogenides preparation and crystal
structures
;
loop_
_citation_id
_citation_journal_full
_citation_year
_citation_journal_volume
_citation_page_first
_citation_page_last
_citation_journal_id_ASTM
primary 'Recueil des Travaux Chimiques des Pays-Bas et de la Belgique' 1964 83
776 783 RTCPA3
loop_
_publ_author_name
'Klein Haneveld, A.J.'
'Jellinek, F.'
_cell_length_a 3.866
_cell_length_b 3.866
_cell_length_c 8.599
_cell_angle_alpha 90.
_cell_angle_beta 90.
_cell_angle_gamma 90.
_cell_volume 128.52
_cell_formula_units_Z 2
_symmetry_space_group_name_H-M 'P 4/n m m S'
_symmetry_Int_Tables_number 129
_refine_ls_R_factor_all 0.129
loop_
_symmetry_equiv_pos_site_id
_symmetry_equiv_pos_as_xyz
1 '-y+1/2, -x+1/2, z'
2 'y+1/2, x+1/2, z'
3 '-y, -x, -z'
4 'y, x, -z'
5 'y+1/2, -x+1/2, z'
6 '-y+1/2, x+1/2, z'
7 'y, -x, -z'
8 '-y, x, -z'
9 'x+1/2, -y+1/2, -z'
10 '-x+1/2, y+1/2, -z'
11 'x, -y, z'
12 '-x, y, z'
13 '-x+1/2, -y+1/2, -z'
14 'x+1/2, y+1/2, -z'
15 '-x, -y, z'
16 'x, y, z'
loop_
_atom_type_symbol
_atom_type_oxidation_number
Zr0+ 0
Te0+ 0
Ge0+ 0
loop_
_atom_site_label
_atom_site_type_symbol
_atom_site_symmetry_multiplicity
_atom_site_Wyckoff_symbol
_atom_site_fract_x
_atom_site_fract_y
_atom_site_fract_z
_atom_site_B_iso_or_equiv
_atom_site_occupancy
_atom_site_attached_hydrogens
Zr1 Zr0+ 2 c 0 0.5 0.249(3) . 1. 0
Te1 Te0+ 2 c 0 0.5 0.628(3) . 1. 0
Ge1 Ge0+ 2 a 0 0 0 . 1. 0
#End of TTdata_15575-ICSD